Selected configuration from lammpstrj

2051 atoms
4 atom types

0.0 28.6213 xlo xhi
0.0 28.6213 ylo yhi
0.0 28.6213 zlo zhi

Masses

1 12.01
2 14.00
3 2.01 
4 16.00 

Atoms

1 1 7.84095 5.64841 16.0284
2 2 23.5751 12.1913 27.6702
3 2 7.43143 5.76639 25.7173
4 2 3.29108 3.68471 21.0824
5 2 21.5875 9.59077 11.1522
6 2 27.8245 4.57926 27.3634
7 2 3.84315 14.0563 14.3699
8 2 14.845 6.18057 21.5041
9 2 9.66092 24.9852 4.247
10 2 26.1658 5.23215 12.2972
11 2 1.48753 15.9404 0.102142
12 2 6.02862 27.6191 12.0192
13 2 12.5307 14.408 2.91474
14 2 6.24992 15.0266 16.5054
15 2 15.2382 5.26432 26.0694
16 2 19.8406 15.3347 21.9612
17 2 3.23667 15.9401 17.5312
18 2 26.5056 21.6501 20.5144
19 2 2.83484 24.3971 24.765
20 2 18.5734 16.6604 25.4464
21 2 0.333066 21.8266 1.40258
22 2 14.559 2.6215 15.186
23 2 2.01303 1.61626 2.10917
24 2 12.6196 22.7772 23.3805
25 2 7.47294 1.23389 13.9956
26 2 19.9367 9.13649 23.3165
27 2 3.90014 13.8476 27.8865
28 2 20.4393 16.5191 4.50554
29 2 27.6471 5.14305 17.4263
30 2 6.09957 19.5238 5.32514
31 2 17.4903 23.3396 20.1406
32 2 5.07936 3.56458 15.3981
33 2 8.74341 12.6293 15.6335
34 2 28.4584 2.44472 21.5153
35 2 15.7977 0.874289 17.2483
36 2 21.6988 11.9628 24.1101
37 2 25.6491 3.36598 4.10824
38 2 16.6618 27.6484 14.603
39 2 16.6786 26.7937 27.7498
40 2 24.4887 5.11371 26.3049
41 2 26.2889 12.6973 10.6931
42 2 8.70342 19.1392 26.8268
43 2 17.7611 13.396 23.6256
44 2 1.76441 22.525 20.3861
45 2 10.3825 20.3876 5.93531
46 2 17.5101 12.2611 8.56017
47 2 20.6653 0.736389 11.9945
48 2 15.7821 25.3329 5.67486
49 2 9.76854 3.60677 25.094
50 2 16.6946 24.2829 24.1337
51 2 22.5888 6.64793 0.152782
52 2 23.9082 20.2607 1.61603
53 2 17.0002 8.60854 2.79699
54 2 12.4768 19.1583 25.4537
55 2 23.3363 19.8951 25.5435
56 2 12.3559 4.8726 12.3965
57 2 8.17776 13.5153 7.57737
58 2 24.5781 13.8418 2.44809
59 2 16.4706 5.7281 11.3869
60 2 27.4922 15.3177 1.1937
61 2 14.6543 16.0493 4.63545
62 2 7.16082 15.7756 4.01903
63 2 0.717195 10.7453 9.51962
64 2 10.1801 17.6638 11.4619
65 2 9.5404 6.79593 3.40914
66 2 25.2479 17.6121 27.3074
67 2 12.0928 19.2917 8.65866
68 2 4.75517 27.5937 15.6727
69 2 9.30676 6.55954 6.91202
70 2 27.2245 0.676547 8.4707
71 2 6.71441 22.4931 11.3798
72 2 0.903062 0.330905 15.8851
73 2 0.249388 14.9308 11.7732
74 2 25.4795 23.4038 5.8133
75 2 13.0077 11.5296 22.5145
76 2 20.4364 24.7115 2.85284
77 2 20.0055 19.2301 23.9419
78 2 22.1454 13.4234 14.9393
79 2 27.4768 18.8667 23.1355
80 2 6.12808 4.88156 13.0946
81 2 10.256 16.4846 8.19562
82 2 10.3654 12.2793 5.22184
83 2 17.2183 6.2203 23.5205
84 2 26.9171 12.2202 7.6027
85 2 24.1843 10.8375 16.0573
86 2 11.165 12.6502 25.3874
87 2 12.8077 28.3274 13.0653
88 2 18.8043 5.49134 20.6261
89 2 9.0362 4.30441 18.8383
90 2 10.6918 7.7811 13.8626
91 2 8.6847 10.6845 12.2083
92 2 20.9995 26.0497 22.6047
93 2 10.5139 7.23893 24.907
94 2 3.19534 20.5543 12.28
95 2 19.1996 20.0861 14.6204
96 2 18.5625 17.8565 7.81201
97 2 5.78036 20.9808 26.9064
98 2 19.7702 13.6686 27.4902
99 2 0.126684 12.679 24.8472
100 2 22.352 26.6775 16.346
101 2 12.2967 25.2559 12.0816
102 2 4.40224 16.3957 2.53531
103 2 5.39609 28.2837 2.54933
104 2 12.0938 27.9335 20.8042
105 2 1.92571 18.4164 15.2947
106 2 23.9233 4.0429 16.4889
107 2 19.7321 7.9601 1.25244
108 2 24.4833 3.35442 1.1472
109 2 15.1165 21.0671 20.1213
110 2 16.6954 22.1462 4.1956
111 2 6.89539 12.284 27.9838
112 2 10.5057 16.5575 4.70405
113 2 15.3985 8.39405 7.93311
114 2 22.941 14.8731 21.6692
115 2 20.1674 17.3025 17.3228
116 2 22.0902 2.35977 9.10003
117 2 15.7953 9.52777 22.1313
118 2 9.39114 14.2716 11.8972
119 2 13.0825 15.622 24.241
120 2 27.7861 25.1249 21.7354
121 2 19.0542 2.63125 14.299
122 2 18.8383 22.4991 1.18149
123 2 26.7678 12.9787 16.83
124 2 3.28206 5.99831 4.57079
125 2 1.01111 5.71138 20.062
126 2 7.01843 22.3198 15.0471
127 2 16.9113 16.7959 13.3689
128 2 8.00389 27.8728 17.3958
129 2 8.70082 9.90517 16.9429
130 2 27.0087 21.8256 27.3341
131 2 21.7045 0.840968 1.68782
132 2 0.420601 2.4526 4.91811
133 2 22.2762 0.657823 15.0279
134 2 14.8541 15.804 7.97163
135 2 19.8282 15.7746 10.4785
136 2 26.9859 24.4016 11.6924
137 2 27.4743 23.5501 18.2139
138 2 17.5792 18.4981 10.7377
139 2 22.7479 18.0074 7.78199
140 2 25.213 27.2998 4.82172
141 2 23.6339 6.81456 10.6618
142 2 14.4153 16.0327 16.1463
143 2 24.6023 2.33935 7.18933
144 2 24.6149 10.1251 19.0132
145 2 4.91259 20.7599 1.78375
146 2 25.673 1.67494 11.572
147 2 2.67545 28.3019 26.7376
148 2 4.68691 18.1181 26.553
149 2 17.5517 10.5781 5.50491
150 2 1.65464 27.9207 21.6328
151 2 26.0172 18.8156 14.6834
152 2 1.21389 7.0611 23.248
153 2 19.3438 4.14368 17.5427
154 2 18.8775 14.2868 14.3303
155 2 0.878099 25.4691 27.6622
156 2 0.413083 2.16159 18.5546
157 2 13.8485 17.0614 10.8114
158 2 7.83488 27.9568 9.26489
159 2 2.57425 20.5776 25.6329
160 2 24.4513 26.2749 23.1617
161 2 15.7729 12.4374 19.956
162 2 19.618 12.188 20.8826
163 2 2.68323 0.602249 6.04963
164 2 22.9483 3.4776 12.9374
165 2 9.48046 23.5188 25.5519
166 2 22.3001 21.5423 22.839
167 2 14.9588 27.9518 10.8465
168 2 11.5405 22.8815 8.97919
169 2 21.2729 12.0029 1.66029
170 2 5.65926 4.42451 18.195
171 2 21.7804 4.03002 26.8863
172 2 21.2243 25.3198 19.0616
173 2 7.41011 7.85589 10.428
174 2 8.30333 9.64432 26.5091
175 2 20.8463 18.9396 11.8412
176 2 2.4449 18.599 21.7584
177 2 24.4575 6.32614 18.7975
178 2 17.6078 14.9485 17.9419
179 2 11.3237 4.90658 15.5135
180 2 7.19156 23.1166 0.3442
181 2 25.1605 5.65196 6.7321
182 2 21.9366 16.3939 25.0148
183 2 19.7586 26.4617 25.4692
184 2 18.079 10.5497 12.1779
185 2 16.1094 4.29365 0.655837
186 2 11.7694 27.24 9.85225
187 2 15.0635 25.0514 8.90972
188 2 24.343 6.36323 23.0624
189 2 9.07994 3.72661 13.0629
190 2 14.7456 20.7091 9.66779
191 2 17.0739 21.0215 24.2538
192 2 28.0994 17.7385 19.09
193 2 24.709 15.9412 10.6549
194 2 3.43842 11.5932 19.7665
195 2 17.9941 0.631689 25.4461
196 2 6.91548 19.0092 12.4813
197 2 6.43713 15.5755 28.4183
198 2 17.9377 2.28125 6.95741
199 2 11.1925 8.93795 21.6028
200 2 18.6089 26.6777 4.7473
201 2 3.24431 22.2201 6.46383
202 2 14.8529 7.4839 0.866876
203 2 18.2315 11.6536 17.5934
204 2 20.2139 20.8851 5.43853
205 2 13.8958 10.2677 10.1655
206 2 3.32497 9.48902 4.2824
207 2 27.9986 15.4762 7.18589
208 2 15.4346 23.9609 12.9868
209 2 9.47122 1.70354 22.5987
210 2 7.78265 4.05758 4.69289
211 2 22.3549 9.36455 26.4416
212 2 5.39758 25.6906 19.3339
213 2 28.5027 15.5212 15.7376
214 2 0.67086 5.75328 2.47848
215 2 12.6148 22.3696 18.1336
216 2 7.02003 28.0593 28.1737
217 2 11.3637 12.9114 20.1563
218 2 0.233527 22.5961 23.4985
219 2 19.7182 7.78425 7.67769
220 2 26.2157 15.6961 4.24568
221 2 21.9671 4.76121 21.0748
222 2 5.99748 2.55518 25.1554
223 2 5.89301 18.7231 16.4065
224 2 13.894 2.94882 9.3205
225 2 24.6867 10.2714 9.64335
226 2 23.8833 3.08091 23.9217
227 2 22.8189 28.0549 20.719
228 2 21.0323 18.0585 27.4843
229 2 7.71167 1.62175 19.3816
230 2 13.4698 21.551 4.96574
231 2 7.79209 16.6841 19.8824
232 2 24.976 17.8011 19.9543
233 2 22.4305 8.13394 21.6099
234 2 9.80818 24.468 16.9293
235 2 5.93154 22.2646 23.8803
236 2 10.1833 27.218 14.8894
237 2 7.7145 7.25464 0.346687
238 2 4.79378 15.9711 6.29969
239 2 18.305 22.8242 26.6857
240 2 23.5228 25.7412 12.9007
241 2 22.4117 14.6878 8.90758
242 2 0.586725 22.6768 15.5772
243 2 23.9311 22.2274 10.2634
244 2 25.0981 25.2739 16.4488
245 2 26.7728 12.3939 28.3108
246 2 15.6983 8.1028 13.8181
247 2 2.61865 4.30135 7.30069
248 2 26.8316 19.5021 10.01
249 2 7.20968 13.3628 2.07623
250 2 17.839 27.5618 8.12215
251 2 13.5283 28.5803 7.65651
252 2 15.5678 0.170973 5.05049
253 2 4.83534 3.10796 3.2974
254 2 4.46976 28.2769 9.20037
255 2 7.08011 2.1815 8.1146
256 2 0.758241 24.364 7.06983
257 2 9.83004 15.6601 16.81
258 2 1.31608 16.7472 24.5458
259 2 14.9088 15.8632 20.5044
260 2 8.61936 24.1207 8.61238
261 2 2.41165 19.2988 28.555
262 2 1.85117 23.3381 11.4611
263 2 6.97713 28.1381 22.1545
264 2 4.71642 1.3179 18.0442
265 2 0.94181 12.1738 12.4457
266 2 4.35691 25.2236 7.6882
267 2 2.08699 26.757 1.67327
268 2 13.4519 7.12627 16.2248
269 2 10.7455 21.6861 27.9993
270 2 25.4903 13.9458 20.0719
271 2 22.1252 27.4906 4.53997
272 2 14.2825 27.8724 1.50755
273 2 18.8178 5.56819 4.33392
274 2 5.53576 11.1102 22.0807
275 2 2.43257 3.59303 28.454
276 2 6.60319 25.2372 25.4071
277 2 21.1299 1.41241 22.9194
278 2 9.16694 16.0279 25.276
279 2 28.6565 3.00335 13.2072
280 2 23.7896 20.4628 5.89796
281 2 11.8871 12.9045 16.13
282 2 9.72663 20.552 21.9019
283 2 7.05318 19.4067 24.2653
284 2 25.6496 15.4132 14.1594
285 2 16.6038 14.2763 26.9735
286 2 12.5824 19.5507 22.0694
287 2 23.8565 13.1414 6.53161
288 2 27.2839 8.16085 19.9822
289 2 26.0887 17.7745 7.13618
290 2 9.46303 10.0574 2.75548
291 2 4.60989 15.1199 25.162
292 2 8.17988 8.26314 23.1585
293 2 24.3565 10.2226 12.8966
294 2 21.2012 10.072 4.474
295 2 3.27038 24.8381 16.003
296 2 13.3107 24.7697 25.8602
297 2 14.5588 12.1904 25.4289
298 2 20.4596 13.3292 4.93812
299 2 18.7457 16.5267 1.40511
300 2 12.4987 18.1345 13.8669
301 2 11.8578 14.9605 13.8125
302 2 26.3056 25.3424 26.4202
303 2 17.2897 18.4827 3.67286
304 2 4.80283 6.36675 1.94392
305 2 27.7987 11.273 19.9471
306 2 10.7669 8.19219 0.266967
307 2 14.5073 0.128853 27.2915
308 2 26.8535 11.2606 14.2244
309 2 27.9475 20.1749 17.0237
310 2 19.2934 27.8605 16.7727
311 2 14.6908 21.4577 27.29
312 2 11.0326 0.88447 28.444
313 2 3.77595 21.7016 16.2551
314 2 27.7518 6.06056 5.07934
315 2 10.3827 1.1338 11.868
316 2 10.218 1.842 8.14456
317 2 2.8196 26.0371 13.1923
318 2 26.4479 8.28275 16.3842
319 2 22.3319 3.86453 3.55794
320 2 18.0208 27.4659 20.0341
321 2 18.5816 11.0261 25.9035
322 2 17.7164 19.4961 0.0824591
323 2 21.6137 5.33985 6.03191
324 2 1.43818 5.44391 11.3562
325 2 5.28464 25.2901 0.882798
326 2 25.6951 4.47345 21.0715
327 2 16.2847 25.4764 18.212
328 2 10.1118 15.9325 21.8886
329 2 2.56118 9.71584 16.1563
330 2 15.6431 2.38335 12.1238
331 2 23.6273 28.3159 10.107
332 2 6.5177 21.7288 8.38739
333 2 21.641 21.5318 28.1549
334 2 15.6213 4.54183 6.19021
335 2 25.1967 28.3987 13.9163
336 2 26.2271 25.9124 8.33369
337 2 23.6216 7.07436 3.80285
338 2 27.7869 15.74 26.4619
339 2 25.267 1.7135 27.3402
340 2 14.0674 8.08011 24.728
341 2 8.64566 6.60631 16.6332
342 2 15.7191 18.3311 26.172
343 2 13.5549 18.3698 0.248073
344 2 13.3748 2.59778 23.1753
345 2 13.3303 6.72721 5.76547
346 2 7.33132 8.58848 13.7735
347 2 21.8943 1.5217 18.0841
348 2 15.745 14.5264 10.6225
349 2 24.0169 17.9663 23.2352
350 2 9.14479 19.9069 16.3076
351 2 19.6697 23.2728 22.3248
352 2 17.4914 2.54474 20.7603
353 2 9.577 16.6583 0.553565
354 2 12.0083 4.46495 27.8078
355 2 14.3197 10.9412 2.68928
356 2 7.91282 16.2946 13.7458
357 2 5.36191 2.29517 11.037
358 2 6.20344 8.05289 4.45914
359 2 9.65399 1.71251 16.4985
360 2 13.1663 24.6016 0.358811
361 2 21.6081 0.90081 26.2994
362 2 9.83591 25.3428 28.154
363 2 17.2935 20.949 7.34463
364 2 3.07745 2.16627 13.1296
365 2 26.0644 6.26721 2.05227
366 2 2.5626 22.9417 27.6102
367 2 1.2281 8.0279 0.423721
368 2 12.4239 15.4305 27.488
369 2 26.8486 0.326984 23.7755
370 2 7.94962 7.807 19.5886
371 2 3.91433 13.1065 2.83794
372 2 20.2172 26.445 13.4004
373 2 9.76596 13.0571 0.0130831
374 2 24.3248 19.3207 11.9133
375 2 28.1632 9.85139 23.2422
376 2 0.8642 25.8828 18.5781
377 2 10.8956 8.48461 10.8005
378 2 20.0165 27.1105 0.495309
379 2 23.2292 15.8672 18.8187
380 2 28.1744 21.2487 12.525
381 2 0.786007 17.4389 9.44549
382 2 0.907719 20.4968 8.86439
383 2 1.31527 13.481 18.002
384 2 5.6594 9.92512 1.12781
385 2 17.9938 5.31226 8.63685
386 2 24.5849 9.97249 1.92361
387 2 1.89556 1.81648 9.75153
388 2 20.8186 2.09151 6.36063
389 2 27.7671 3.07622 1.6982
390 2 14.4312 2.13116 19.9395
391 2 23.5033 24.2715 0.624643
392 2 28.4684 27.8538 5.48038
393 2 12.9023 6.41246 8.83328
394 2 5.14147 6.2642 22.1564
395 2 8.0372 28.1122 25.0532
396 2 5.2816 5.59524 9.40118
397 2 19.0938 7.43816 11.6232
398 2 22.5454 19.6621 14.7269
399 2 0.231319 26.9799 11.1001
400 2 21.525 27.2869 8.02936
401 2 8.61315 24.5277 22.7766
402 2 4.20387 6.87272 13.4355
403 2 12.7678 10.3505 13.7243
404 2 16.0448 10.9639 27.8648
405 2 11.5616 6.40424 18.9941
406 2 7.43753 9.34302 7.55951
407 2 23.5434 23.642 25.8993
408 2 8.81799 4.50433 10.2527
409 2 23.4803 17.5771 4.09611
410 2 21.3729 22.6455 14.1561
411 2 4.77031 22.7148 18.8386
412 2 14.6536 18.3566 18.1829
413 2 12.0929 9.89115 17.9077
414 2 26.6778 27.6759 20.7869
415 2 18.6466 9.04101 19.7903
416 2 13.4558 21.7676 14.8644
417 2 21.8282 22.5586 18.1109
418 2 15.1834 16.0235 1.45921
419 2 12.9783 12.008 28.4033
420 2 12.6631 5.13878 2.97318
421 2 10.9664 18.1686 19.1857
422 2 9.1739 3.67904 28.5003
423 2 1.54342 14.2076 4.49518
424 2 4.69982 18.5239 8.9544
425 2 17.6727 18.1758 19.5444
426 2 16.9687 25.4177 2.10778
427 2 9.52428 22.8893 13.2812
428 2 18.2453 2.98586 27.5228
429 2 20.3067 10.4259 14.5932
430 2 25.6887 12.9768 24.039
431 2 18.6616 21.7571 10.6622
432 2 0.717513 2.07451 25.2413
433 2 16.4588 12.953 2.72411
434 2 19.0722 24.3064 6.89868
435 2 26.7476 7.9285 11.0598
436 2 5.85171 2.15546 0.570826
437 2 12.2447 28.3944 4.57494
438 2 12.8722 25.3339 3.39772
439 2 14.8418 18.7395 6.3037
440 2 4.86908 12.7747 5.80214
441 2 24.8273 24.8679 19.7508
442 2 17.7372 26.383 10.8478
443 2 27.9097 4.65222 8.57079
444 2 1.40606 10.12 26.0407
445 2 2.10288 7.85048 8.1678
446 2 6.82827 23.7281 4.37897
447 2 26.6634 8.16849 7.46861
448 2 0.422585 27.0696 24.6738
449 2 8.16454 19.0448 7.66659
450 2 21.1706 12.9432 18.1414
451 2 13.6454 12.6798 5.95947
452 2 22.7641 11.6998 21.1293
453 2 12.1201 21.2706 11.69
454 2 28.4872 24.8602 2.74362
455 2 1.8732 12.8075 22.4197
456 2 20.0217 19.5646 2.33852
457 2 11.4484 3.47365 5.49211
458 2 12.4 18.8558 3.78866
459 2 9.77964 2.13691 2.79382
460 2 12.3575 9.66427 5.43879
461 2 26.9359 7.60628 25.0828
462 2 9.15655 11.055 21.6537
463 2 4.23604 9.16262 11.1307
464 2 5.48358 25.4519 22.4005
465 2 7.11042 14.2715 23.2985
466 2 24.0752 20.425 18.27
467 2 14.6138 22.1568 1.83684
468 2 24.2583 27.2255 27.7319
469 2 4.07207 7.28698 27.1307
470 2 12.7277 13.2982 8.97315
471 2 6.98119 13.1469 19.7509
472 2 20.7987 10.7223 8.1553
473 2 8.45104 25.6304 11.8053
474 2 21.242 6.11294 24.5804
475 2 19.3713 14.8663 7.37585
476 2 27.1793 11.4028 2.83693
477 2 11.8771 24.5162 6.37373
478 2 17.4044 17.675 22.7707
479 2 16.5654 5.7621 16.1006
480 2 18.4075 21.0371 17.6577
481 2 18.8491 23.5399 15.6848
482 2 27.6776 27.6149 1.14287
483 2 19.7006 3.88325 1.50219
484 2 16.5103 14.1732 5.88837
485 2 21.9147 18.387 20.2422
486 2 19.9383 4.15847 10.8851
487 2 8.52992 0.423195 5.56547
488 2 12.9697 25.2441 15.0974
489 2 3.69057 12.1678 9.80322
490 2 26.9881 18.7605 1.66995
491 2 5.7068 10.7341 16.2473
492 2 3.37127 23.3801 2.68765
493 2 25.1132 9.59349 22.2042
494 2 1.26329 8.75463 13.2261
495 2 8.7752 27.2296 2.07262
496 2 25.759 21.5692 23.8683
497 2 25.6507 9.12899 27.4159
498 2 22.2761 14.6152 12.3613
499 2 3.57783 15.6691 20.8347
500 2 22.469 7.79344 13.7746
501 2 11.0875 5.39755 22.198
502 2 14.7578 2.79765 3.65852
503 2 19.3153 7.41114 15.6518
504 2 0.435384 10.1718 5.24989
505 2 15.5311 27.88 23.8732
506 2 3.6412 4.54661 25.0531
507 2 20.9652 20.7927 8.45118
508 2 24.961 9.95326 5.27883
509 2 9.15962 20.7333 10.7774
510 2 11.1355 26.4744 23.522
511 2 18.5418 6.71636 27.1616
512 2 4.04468 28.3785 23.9295
513 2 21.5805 8.49429 17.608
514 3 23.4056 12.3833 28.6768
515 3 6.63571 5.57909 25.1756
516 3 21.6002 10.5392 11.4992
517 3 9.40184 25.9431 4.54529
518 3 20.6891 9.24293 10.8104
519 3 15.7554 6.39549 21.8344
520 3 7.98649 6.4713 25.2593
521 3 1.82184 16.8834 28.8196
522 3 3.67538 13.0957 14.3445
523 3 11.8046 15.0542 2.80796
524 3 13.0002 22.0511 23.9938
525 3 18.405 17.5973 25.9
526 3 28.6957 22.8235 1.55193
527 3 26.0738 6.06465 11.7677
528 3 27.9607 3.91122 26.604
529 3 5.28066 26.9994 12.2855
530 3 16.1477 5.66622 26.4026
531 3 8.0243 1.12985 14.8461
532 3 8.68954 24.442 4.23527
533 3 1.71813 15.6327 27.7272
534 3 12.7211 14.0373 2.01207
535 3 14.5693 5.21872 21.7027
536 3 25.4896 4.66733 11.8089
537 3 19.2696 15.5265 22.7843
538 3 22.6727 12.0584 27.261
539 3 25.7481 21.2134 20.0466
540 3 14.8032 2.10398 16.0644
541 3 5.86805 14.0839 16.28
542 3 4.19603 3.89859 21.5264
543 3 3.06826 14.2133 27.4312
544 3 2.67385 1.85437 2.90229
545 3 27.1091 4.40342 17.7672
546 3 2.62632 1.49706 1.3041
547 3 5.58911 2.76692 15.8253
548 3 3.62792 16.243 18.4091
549 3 5.57981 19.3301 6.1514
550 3 28.4203 1.90197 22.387
551 3 9.77712 12.7611 15.8423
552 3 27.2207 20.927 20.6729
553 3 4.67718 14.2375 13.8721
554 3 16.8601 24.1376 19.8953
555 3 13.5982 2.65077 14.905
556 3 14.756 6.24729 20.4894
557 3 1.33754 21.7892 1.23723
558 3 19.0573 8.83614 22.9083
559 3 21.3542 16.9302 4.53693
560 3 26.613 3.73703 3.92375
561 3 3.47388 13.509 0.210907
562 3 17.5372 26.9693 27.2548
563 3 18.2242 15.9219 26.0683
564 3 3.85334 16.1207 16.7832
565 3 19.6024 16.4977 25.4113
566 3 6.16574 28.2918 12.8167
567 3 3.5562 23.883 24.1895
568 3 15.1948 2.38897 14.4003
569 3 15.8532 0.314047 16.4135
570 3 23.8927 11.222 27.5837
571 3 7.23463 15.0814 16.6495
572 3 19.6652 9.65797 24.111
573 3 16.8143 22.7884 20.6543
574 3 2.02451 15.3849 0.783877
575 3 2.19678 22.9728 21.1846
576 3 11.294 19.8815 5.70497
577 3 7.1022 6.05298 26.6099
578 3 21.4206 12.7757 23.5087
579 3 3.1166 2.74939 21.4178
580 3 21.7328 9.02292 12.0377
581 3 6.09173 18.5773 4.99064
582 3 9.92023 25.0393 3.2798
583 3 23.575 5.52111 26.4973
584 3 15.1205 4.46114 26.648
585 3 14.5475 5.81702 26.5049
586 3 2.94754 25.3748 24.6374
587 3 13.4624 23.3154 23.2626
588 3 5.69444 28.2072 11.2876
589 3 5.65196 15.2866 17.2676
590 3 16.5342 24.797 23.2155
591 3 19.2866 15.9475 21.3425
592 3 12.2263 13.6147 3.43707
593 3 26.8935 5.01388 27.4073
594 3 12.546 22.2092 22.497
595 3 19.7455 14.4003 21.6963
596 3 9.72566 3.41999 24.1211
597 3 3.0277 14.4228 13.8602
598 3 15.5549 0.261968 18.044
599 3 9.31643 19.6698 27.3986
600 3 15.61 24.8487 6.59074
601 3 20.0917 1.56625 11.7387
602 3 24.9938 5.92169 25.9164
603 3 6.69143 1.84367 14.1069
604 3 20.1525 16.0905 3.65729
605 3 16.6575 9.20143 3.54108
606 3 25.5484 5.38052 13.0744
607 3 24.7637 20.0091 1.11054
608 3 8.14328 1.46259 13.2209
609 3 4.3312 14.7649 28.1111
610 3 1.74779 0.668144 2.36915
611 3 11.5838 19.7244 25.5337
612 3 25.6583 13.4423 10.4898
613 3 5.42883 19.992 4.65872
614 3 22.4861 6.16766 1.08326
615 3 28.3057 5.62623 18.0966
616 3 17.4785 27.3116 14.1398
617 3 28.834 21.5947 2.4101
618 3 2.33452 16.393 17.3098
619 3 25.0962 4.16099 4.36432
620 3 8.38578 13.5765 15.4737
621 3 12.0548 5.77492 12.0761
622 3 18.5169 13.0444 23.0425
623 3 4.2608 3.74784 15.9873
624 3 17.0829 13.6665 22.9497
625 3 25.8866 11.7729 10.4256
626 3 23.5447 13.7089 2.43907
627 3 26.1386 21.6736 21.4882
628 3 17.6309 22.869 19.2397
629 3 5.65411 4.36959 15.4913
630 3 22.6289 12.0132 24.3852
631 3 0.714402 2.84301 21.4825
632 3 7.98534 16.3317 4.2721
633 3 22.8169 20.1926 24.7114
634 3 28.2588 4.73605 16.7315
635 3 16.5606 12.5683 8.49947
636 3 19.7606 17.2604 4.79627
637 3 28.1771 1.97136 20.6487
638 3 15.9547 24.6502 4.96196
639 3 20.4129 8.20922 23.4681
640 3 8.67306 12.7533 8.00312
641 3 10.5241 21.3649 6.15198
642 3 13.7851 15.8527 4.17479
643 3 8.66808 12.176 14.7593
644 3 8.44397 18.4032 27.4578
645 3 23.1568 20.5206 26.333
646 3 8.65823 6.63754 3.96451
647 3 16.0713 26.773 14.6328
648 3 0.0754154 11.4314 9.03915
649 3 16.2106 28.2577 13.8998
650 3 16.2063 25.9844 27.2731
651 3 12.849 19.7514 8.16849
652 3 10.2788 6.77572 6.9218
653 3 28.3543 15.5182 0.717794
654 3 14.9286 25.8275 5.43198
655 3 16.0627 27.5516 27.5571
656 3 16.8026 23.3118 23.959
657 3 17.5751 11.3837 9.11268
658 3 16.8784 5.33189 10.5091
659 3 9.10464 2.89928 25.5025
660 3 5.53064 27.017 15.1801
661 3 21.6558 11.0943 23.4822
662 3 12.9249 19.258 26.3542
663 3 21.3462 0.69119 11.195
664 3 16.6999 1.20988 17.5484
665 3 25.7445 2.90469 5.00257
666 3 0.62409 0.531143 14.9282
667 3 27.2883 1.12379 7.61481
668 3 10.2412 16.6666 11.6021
669 3 27.3022 14.336 0.694905
670 3 0.790792 22.6834 20.5101
671 3 17.3735 9.23383 2.07584
672 3 25.3022 18.495 26.8125
673 3 2.14726 23.1623 19.6727
674 3 13.325 4.73508 12.275
675 3 9.6716 20.3534 5.19053
676 3 12.207 18.1542 25.2986
677 3 27.2492 28.2022 8.2616
678 3 24.3564 4.49615 25.5418
679 3 22.3495 5.87529 28.1366
680 3 8.39889 14.4193 8.03056
681 3 24.8746 13.9919 1.45344
682 3 9.55634 6.05189 2.68058
683 3 1.00204 15.3313 11.1819
684 3 24.0994 21.0644 2.25894
685 3 15.8751 24.5206 24.7375
686 3 7.89178 19.6972 26.7282
687 3 24.9945 24.2759 5.74441
688 3 18.199 12.9381 8.90858
689 3 23.6242 6.82584 -0.0187545
690 3 23.236 20.6905 0.952557
691 3 7.37711 15.3521 3.11826
692 3 26.5414 12.6832 11.6622
693 3 18.1204 14.223 23.9899
694 3 20.5133 19.8721 24.5754
695 3 20.04 -0.0896256 11.8826
696 3 9.26801 4.5495 25.1032
697 3 17.7686 8.15115 3.26042
698 3 5.68367 22.4226 11.5076
699 3 1.83658 28.4781 15.9017
700 3 17.7729 5.5122 23.0313
701 3 11.8705 4.18243 11.8092
702 3 7.11923 23.4183 11.539
703 3 0.706686 9.98938 8.8688
704 3 24.7293 14.7319 2.91617
705 3 10.3635 6.58319 4.00246
706 3 12.7041 10.683 23.1189
707 3 22.9833 18.9771 25.8036
708 3 7.18984 14.9832 4.66209
709 3 11.0447 18.1574 11.2779
710 3 15.1716 15.1965 4.81671
711 3 0.544002 13.9996 12.0857
712 3 10.9895 12.494 24.4147
713 3 15.7624 5.03463 11.7451
714 3 12.0239 19.7306 9.56447
715 3 10.8274 17.3688 8.01706
716 3 26.0068 12.4059 7.22725
717 3 26.0768 17.1227 27.0817
718 3 13.1565 0.61004 12.6722
719 3 27.2699 17.9046 22.8656
720 3 15.9785 6.50937 11.0335
721 3 13.9365 11.1163 22.324
722 3 12.6417 11.1909 21.5921
723 3 8.72025 7.11849 7.53879
724 3 15.3123 16.6016 4.03964
725 3 23.2265 10.6223 16.1903
726 3 8.24365 4.67629 19.3698
727 3 6.83668 4.70022 12.406
728 3 7.17241 13.3884 7.50906
729 3 10.8548 7.80778 12.8695
730 3 4.39798 28.2335 15.0198
731 3 10.1334 11.6938 6.01877
732 3 20.1369 25.0284 3.74733
733 3 26.6656 19.4515 23.0513
734 3 9.82658 18.023 12.3853
735 3 0.23369 28.2649 16.1182
736 3 0.175578 10.3983 10.295
737 3 3.97842 26.9279 15.8693
738 3 11.0364 15.7146 8.25959
739 3 25.3223 17.7685 28.2905
740 3 24.5457 10.2462 15.274
741 3 9.12333 5.59581 7.25788
742 3 26.8887 12.3965 8.6424
743 3 26.7591 15.8686 0.724955
744 3 21.29 24.2959 2.82289
745 3 19.6316 20.9532 14.281
746 3 11.311 19.6241 8.1083
747 3 19.8424 5.41383 20.5281
748 3 2.9824 21.5291 12.2208
749 3 9.99542 7.16214 24.0558
750 3 20.5392 18.3495 24.0051
751 3 18.7147 6.20098 21.3238
752 3 28.1634 0.861641 8.83136
753 3 25.5072 23.0977 6.76172
754 3 19.5015 14.6226 27.6751
755 3 8.89722 9.78199 12.6295
756 3 6.81204 22.41 10.3527
757 3 28.243 13.5004 25.1687
758 3 22.2333 13.6328 13.9655
759 3 21.926 25.8756 23.0496
760 3 9.70855 11.9235 4.49669
761 3 18.1631 17.7008 6.85623
762 3 3.74301 17.0298 2.91144
763 3 0.291608 15.4401 12.6685
764 3 12.7488 25.5993 12.9545
765 3 10.6973 8.22842 25.1173
766 3 19.5634 17.5062 7.66075
767 3 9.61973 7.71736 13.7988
768 3 27.0351 11.2401 7.45004
769 3 6.48876 5.28913 13.9678
770 3 23.3861 26.7419 16.4827
771 3 4.40156 28.165 2.62096
772 3 22.5213 14.1718 15.5414
773 3 24.5945 3.28215 16.8149
774 3 20.6729 7.61066 0.941529
775 3 22.35 26.3584 15.39
776 3 8.78723 4.45551 17.8796
777 3 6.30344 21.3034 27.7288
778 3 10.6657 12.1379 26.1268
779 3 16.2772 5.88454 23.6622
780 3 26.5192 23.4922 5.70623
781 3 12.6251 27.3873 21.457
782 3 2.4535 20.0574 11.8171
783 3 22.6471 12.568 15.1408
784 3 0.483889 12.1725 25.6211
785 3 20.9753 26.9638 22.2152
786 3 12.4576 27.7814 19.8594
787 3 1.17563 19.0244 15.2648
788 3 17.6625 6.33 24.4177
789 3 18.3905 6.11514 19.7988
790 3 13.3231 27.5816 12.5939
791 3 17.148 23.0666 4.12021
792 3 9.74441 4.99917 19.0424
793 3 11.4128 6.77893 24.7791
794 3 20.0843 19.5503 22.9751
795 3 14.6635 21.6086 20.8809
796 3 13.0951 -0.239736 14.0825
797 3 20.4443 25.5687 2.31821
798 3 5.69721 19.9411 27.0529
799 3 5.32488 5.5661 12.8818
800 3 21.1415 2.65495 9.41466
801 3 9.40044 14.904 11.0882
802 3 20.0219 17.7165 16.4387
803 3 10.8961 6.83995 14.1354
804 3 19.1621 19.4097 13.8405
805 3 5.5355 0.556799 2.07156
806 3 16.0515 9.21466 7.86176
807 3 7.74415 10.8392 12.5153
808 3 11.1352 13.6249 25.5933
809 3 -0.149026 25.5748 21.0494
810 3 9.8455 16.6784 9.09951
811 3 28.3783 19.0734 22.6253
812 3 10.6934 17.5831 4.59209
813 3 17.9517 22.0162 1.59563
814 3 13.421 14.6904 23.962
815 3 10.0763 13.1663 5.56472
816 3 2.14471 18.2122 14.3321
817 3 11.3857 16.1155 4.44114
818 3 24.7085 10.5139 16.922
819 3 14.5545 8.59355 7.42036
820 3 19.7125 2.09424 13.7401
821 3 19.2357 13.069 28.1194
822 3 15.4148 21.8156 19.4781
823 3 9.19834 11.3904 12.8029
824 3 24.5166 4.63216 15.8817
825 3 21.9222 27.6016 16.1659
826 3 15.9942 22.0385 3.41589
827 3 24.8722 3.38782 2.0807
828 3 8.84458 9.59784 17.9147
829 3 0.23686 5.264 20.5296
830 3 27.0233 13.9259 16.8018
831 3 19.0598 7.22493 1.0859
832 3 6.71476 21.3531 15.3058
833 3 27.914 12.1976 24.5267
834 3 2.38013 5.5724 4.80443
835 3 24.7635 4.25118 0.687936
836 3 19.5365 16.5643 17.44
837 3 20.9127 25.3126 21.8739
838 3 26.6523 22.4232 28.0811
839 3 4.14041 15.4406 2.65674
840 3 23.5202 15.4277 22.207
841 3 11.7463 24.4929 12.331
842 3 18.1558 20.2767 14.6925
843 3 17.6442 17.4821 13.2734
844 3 15.4724 8.63499 22.5848
845 3 22.4426 1.45713 1.37748
846 3 2.96302 20.4764 13.2379
847 3 19.4588 16.7239 10.3441
848 3 23.0266 13.8709 21.8644
849 3 9.18721 13.3081 11.6665
850 3 19.4169 2.61109 15.3131
851 3 16.0041 20.7171 20.4888
852 3 20.7825 13.5551 27.7121
853 3 23.8801 4.61318 17.3525
854 3 8.27121 26.8717 17.4165
855 3 19.8239 8.04711 2.25775
856 3 25.3985 28.2633 4.68282
857 3 17.2594 17.7709 11.2997
858 3 12.9833 24.9332 11.4179
859 3 17.2204 16.1704 14.027
860 3 22.7354 1.53482 15.4354
861 3 5.28615 16.5415 2.88534
862 3 14.6167 16.5971 8.49603
863 3 18.6886 18.8105 7.92269
864 3 28.2113 2.15545 4.47036
865 3 6.04671 12.7429 27.5785
866 3 4.82466 21.2595 27.0195
867 3 6.99702 11.348 27.5402
868 3 3.83471 5.65339 5.38398
869 3 25.9681 12.8632 17.4842
870 3 1.1733 6.59077 20.5565
871 3 12.2944 0.285066 20.9303
872 3 6.73923 22.5298 14.0608
873 3 27.6119 12.6123 17.2594
874 3 13.324 16.2989 23.5293
875 3 3.33327 7.04296 4.79893
876 3 16.5177 9.89902 22.8048
877 3 21.8206 1.02462 14.1643
878 3 0.251962 3.28839 5.56919
879 3 5.76464 -0.263794 3.45748
880 3 17.3655 21.3982 4.04791
881 3 26.9577 22.9745 17.5139
882 3 23.6195 2.55251 6.91825
883 3 27.5145 21.0085 27.7326
884 3 14.1085 16.5648 17.0006
885 3 27.7745 24.8874 11.1745
886 3 8.80025 28.4289 17.1499
887 3 22.3222 1.3809 9.34068
888 3 2.79549 18.7805 15.7165
889 3 28.4724 23.324 18.0927
890 3 15.7444 7.58364 7.37662
891 3 21.5406 0.106739 1.03275
892 3 19.28 15.4091 11.231
893 3 7.68828 12.8274 27.7456
894 3 8.60233 14.6574 12.4215
895 3 5.84982 20.7449 1.33902
896 3 24.8819 2.53092 0.667569
897 3 22.7696 2.92836 9.61578
898 3 2.01545 0.329025 27.1721
899 3 28.2403 24.2825 22.1325
900 3 27.1578 24.7114 21.0264
901 3 24.9495 1.91293 10.9094
902 3 19.9233 18.0359 17.9677
903 3 19.2271 23.1625 1.83394
904 3 24.5467 2.22303 8.19803
905 3 23.8307 6.33701 9.69824
906 3 10.2976 16.2026 5.60213
907 3 18.6536 22.8043 0.231912
908 3 23.7531 9.63908 19.1549
909 3 22.7918 7.30607 10.4995
910 3 26.8186 19.3781 14.986
911 3 22.865 17.8777 6.78448
912 3 20.3318 3.78754 17.4907
913 3 26.9502 23.4277 11.3221
914 3 21.987 15.0265 21.8871
915 3 16.2985 9.28504 21.281
916 3 13.5714 15.5682 15.8953
917 3 14.9364 16.0397 6.9662
918 3 15.1355 15.3627 16.4134
919 3 8.66544 10.9215 16.812
920 3 16.156 17.2486 13.7972
921 3 23.0713 0.207978 14.4996
922 3 12.1078 15.4924 23.949
923 3 6.39841 22.9826 15.5671
924 3 0.835235 24.5346 27.2179
925 3 24.6917 10.7995 19.7783
926 3 17.6159 18.2143 9.75285
927 3 18.1457 2.11015 14.4326
928 3 1.66011 0.135181 21.0812
929 3 5.09442 17.5692 27.3114
930 3 22.1673 17.3018 8.17427
931 3 17.8742 11.2154 6.2494
932 3 18.7154 14.7199 13.4071
933 3 26.3355 1.17667 11.0243
934 3 24.8492 26.8454 4.00169
935 3 24.1545 26.3204 24.0975
936 3 9.39239 9.62348 16.271
937 3 2.10716 20.8298 24.7448
938 3 1.80473 5.17593 20.3343
939 3 24.4485 27.2656 5.49881
940 3 8.85474 23.7227 24.754
941 3 22.7766 22.2946 23.2845
942 3 2.70638 27.4815 27.3432
943 3 18.6871 12.186 20.3876
944 3 2.8106 28.3375 5.54921
945 3 8.23815 1.36653 5.61038
946 3 18.7055 13.3092 14.2878
947 3 4.32508 21.0447 0.932508
948 3 26.1454 21.3476 26.9067
949 3 2.35236 28.0026 22.3571
950 3 15.0796 12.0918 19.2843
951 3 14.1373 15.1017 8.10092
952 3 14.044 16.1018 10.6772
953 3 20.8406 1.38361 1.7439
954 3 19.615 15.2513 9.6185
955 3 1.13053 2.74214 4.17705
956 3 7.30481 27.959 16.6511
957 3 27.4289 24.1376 12.5838
958 3 18.508 18.6051 11.1823
959 3 0.527637 1.75397 17.5812
960 3 0.898377 26.1228 26.8543
961 3 9.01139 9.87346 27.1953
962 3 18.4772 10.096 5.34672
963 3 22.2533 18.8904 7.95641
964 3 7.99047 27.1085 9.82649
965 3 24.8292 1.44646 6.86219
966 3 21.6946 11.4195 0.958934
967 3 21.5558 25.8647 18.2525
968 3 27.1452 23.242 19.1189
969 3 6.92925 8.55093 10.9628
970 3 26.0103 17.84 14.8565
971 3 8.65854 28.5707 9.11611
972 3 3.57866 28.7836 26.7749
973 3 19.324 5.08767 17.2636
974 3 11.7068 22.8517 7.99278
975 3 22.4459 2.78401 12.4008
976 3 3.54727 20.5255 25.4447
977 3 15.2428 -0.135929 10.0121
978 3 11.81 4.41864 16.2734
979 3 28.6313 25.6846 28.0976
980 3 8.06952 23.2818 0.781356
981 3 25.7488 19.0055 13.7362
982 3 0.455774 7.51006 22.6793
983 3 5.72578 5.16718 17.487
984 3 23.2847 6.05206 11.2898
985 3 13.949 27.6917 10.6397
986 3 15.7643 13.4396 19.8043
987 3 20.8172 12.7361 1.18928
988 3 23.6459 2.96339 13.5883
989 3 6.15824 4.73725 19.0621
990 3 12.2813 22.2336 9.37969
991 3 17.3109 15.2415 17.0033
992 3 2.81456 19.2988 22.3731
993 3 23.7772 7.00094 18.4634
994 3 2.09916 7.44875 22.9015
995 3 25.1243 4.71204 7.14794
996 3 20.3156 12.2313 20.0847
997 3 22.8203 16.1812 25.4807
998 3 1.20127 6.10521 22.9699
999 3 21.1899 19.0232 10.9136
1000 3 4.818 19.7523 1.99584
1001 3 1.92601 1.11363 5.53081
1002 3 26.101 2.46714 12.0017
1003 3 25.3753 9.40316 19.2183
1004 3 10.3922 23.708 25.1518
1005 3 19.3181 4.15026 18.5347